
     Program PWSCF v.6.6 starts on 16Nov2020 at  2:57:17 

     This program is part of the open-source Quantum ESPRESSO suite
     for quantum simulation of materials; please cite
         "P. Giannozzi et al., J. Phys.:Condens. Matter 21 395502 (2009);
         "P. Giannozzi et al., J. Phys.:Condens. Matter 29 465901 (2017);
          URL http://www.quantum-espresso.org", 
     in publications or presentations arising from this work. More details at
     http://www.quantum-espresso.org/quote

     Parallel version (MPI), running on    10 processors

     MPI processes distributed on     1 nodes
     R & G space division:  proc/nbgrp/npool/nimage =      10
     Fft bands division:     nmany     =       1
     Reading input from Co.in

     Current dimensions of program PWSCF are:
     Max number of different atomic species (ntypx) = 10
     Max number of k-points (npk) =  40000
     Max angular momentum in pseudopotentials (lmaxx) =  3

     Atomic positions and unit cell read from directory:
     ./outdir/Co.save/

     file Co.pbe-spn-kjpaw_psl.0.3.1.UPF: wavefunction(s)  3P 3D renormalized

     Subspace diagonalization in iterative solution of the eigenvalue problem:
     a serial algorithm will be used

     Message from routine setup:
     using ibrav=0 with symmetry is DISCOURAGED, use correct ibrav instead

     Parallelization info
     --------------------
     sticks:   dense  smooth     PW     G-vecs:    dense   smooth      PW
     Min          67      36     12                 1164      463      93
     Max          68      37     13                 1166      466      97
     Sum         673     367    121                11647     4645     941



     bravais-lattice index     =            0
     lattice parameter (alat)  =       4.7050  a.u.
     unit-cell volume          =      73.6468 (a.u.)^3
     number of atoms/cell      =            1
     number of atomic types    =            1
     number of electrons       =        17.00
     number of Kohn-Sham states=           13
     kinetic-energy cutoff     =      60.0000  Ry
     charge density cutoff     =     445.0000  Ry
     Exchange-correlation= SLA PW PBX PBC
                           (   1   4   3   4   0   0   0)

     celldm(1)=   4.704965  celldm(2)=   0.000000  celldm(3)=   0.000000
     celldm(4)=   0.000000  celldm(5)=   0.000000  celldm(6)=   0.000000

     crystal axes: (cart. coord. in units of alat)
               a(1) = (   1.000000   0.000000   0.000000 )  
               a(2) = (   0.500000   0.866025   0.000000 )  
               a(3) = (   0.500000   0.288675   0.816497 )  

     reciprocal axes: (cart. coord. in units 2 pi/alat)
               b(1) = (  1.000000 -0.577350 -0.408248 )  
               b(2) = (  0.000000  1.154701 -0.408248 )  
               b(3) = (  0.000000  0.000000  1.224745 )  


     PseudoPot. # 1 for Co read from file:
     ./Co.pbe-spn-kjpaw_psl.0.3.1.UPF
     MD5 check sum: 3c0a43779828c046024e4f3be63f8e67
     Pseudo is Projector augmented-wave + core cor, Zval = 17.0
     Generated using "atomic" code by A. Dal Corso v.6.2.2
     Shape of augmentation charge: PSQ
     Using radial grid of 1193 points,  6 beta functions with: 
                l(1) =   0
                l(2) =   0
                l(3) =   1
                l(4) =   1
                l(5) =   2
                l(6) =   2
     Q(r) pseudized with 0 coefficients 


     atomic species   valence    mass     pseudopotential
        Co            17.00    58.93300     Co( 1.00)

     Starting magnetic structure 
     atomic species   magnetization
        Co           1.000

     12 Sym. Ops., with inversion, found



   Cartesian axes

     site n.     atom                  positions (alat units)
         1           Co  tau(   1) = (   0.0000000   0.0000000   0.0000000  )

     number of k points=  1156 (tetrahedron method)

     Number of k-points >= 100: set verbosity='high' to print them.

     Dense  grid:    11647 G-vectors     FFT dimensions: (  32,  32,  32)

     Smooth grid:     4645 G-vectors     FFT dimensions: (  24,  24,  24)

     Estimated max dynamical RAM per process >       5.66 MB

     Estimated total dynamical RAM >      56.64 MB

     Check: negative core charge=   -0.000046
     Generating pointlists ...
     new r_m :   0.4125 (alat units)  1.9408 (a.u.) for type    1

     The potential is recalculated from file :
     ./outdir/Co.save/charge-density

     Starting wfcs are   10 randomized atomic wfcs +    3 random wfcs
     Checking if some PAW data can be deallocated... 

     Band Structure Calculation
     Davidson diagonalization with overlap

     ethr =  5.88E-11,  avg # of iterations = 35.3

     total cpu time spent up to now is      194.5 secs

     End of band structure calculation

     Number of k-points >= 100: set verbosity='high' to print the bands.

     the Fermi energy is    18.6664 ev
     (compare with:    18.6480 eV, computed in scf)

     Writing output data file ./outdir/Co.save/

     init_run     :      0.33s CPU      0.35s WALL (       1 calls)
     electrons    :    177.73s CPU    186.96s WALL (       1 calls)

     Called by init_run:
     wfcinit      :      0.00s CPU      0.00s WALL (       1 calls)
     potinit      :      0.20s CPU      0.21s WALL (       1 calls)
     hinit0       :      0.10s CPU      0.11s WALL (       1 calls)

     Called by electrons:
     c_bands      :    175.25s CPU    184.48s WALL (       1 calls)
     v_of_rho     :      0.01s CPU      0.01s WALL (       1 calls)
     newd         :      0.01s CPU      0.01s WALL (       1 calls)
     PAW_pot      :      0.19s CPU      0.20s WALL (       1 calls)

     Called by c_bands:
     init_us_2    :      0.08s CPU      0.09s WALL (    2312 calls)
     cegterg      :    170.26s CPU    179.08s WALL (    5136 calls)

     Called by *egterg:
     cdiaghg      :     26.41s CPU     27.73s WALL (   83956 calls)
     h_psi        :    104.25s CPU    109.89s WALL (   89092 calls)
     s_psi        :      4.02s CPU      4.26s WALL (   89092 calls)
     g_psi        :      0.48s CPU      0.51s WALL (   81644 calls)

     Called by h_psi:
     h_psi:calbec :      5.66s CPU      5.99s WALL (   89092 calls)
     vloc_psi     :     93.76s CPU     98.79s WALL (   89092 calls)
     add_vuspsi   :      4.04s CPU      4.28s WALL (   89092 calls)

     General routines
     calbec       :      5.43s CPU      5.76s WALL (   89092 calls)
     fft          :      0.01s CPU      0.01s WALL (      23 calls)
     ffts         :      0.00s CPU      0.00s WALL (       2 calls)
     fftw         :     87.07s CPU     91.76s WALL ( 1714442 calls)
     interpolate  :      0.00s CPU      0.00s WALL (       2 calls)
     davcio       :      0.07s CPU      0.13s WALL (    4624 calls)

     Parallel routines
     fft_scatt_xy :      8.51s CPU      8.97s WALL ( 1714467 calls)
     fft_scatt_yz :     30.82s CPU     32.49s WALL ( 1714467 calls)

     PWSCF        :   3m 7.27s CPU   3m17.14s WALL


   This run was terminated on:   3: 0:34  16Nov2020            

=------------------------------------------------------------------------------=
   JOB DONE.
=------------------------------------------------------------------------------=
